integrator              = md
dt                      = 0.002
nsteps                  = 500000    ; 1 ns total (500k × 0.002 ps)
nstxout-compressed      = 500       ; XTC every 1 ps - HIGH FREQUENCY for CV sigma, std calculation
nstvout                 = 500000    ; velocities at end only (1 ns)
nstfout                 = 500000    ; forces at end only (1 ns)
nstcalcenergy           = 100       ; calculate energy every 0.2 ps
nstenergy               = 1000      ; write energy every 2 ps
nstlog                  = 1000      ; log every 2 ps
;
cutoff-scheme           = Verlet
nstlist                 = 20
rlist                   = 0.9
vdwtype                 = Cut-off
vdw-modifier            = None
DispCorr                = EnerPres
rvdw                    = 0.9
coulombtype             = PME
rcoulomb                = 0.9
;
tcoupl                  = v-rescale
tc_grps                 = SOLU MEMB SOLV
tau_t                   = 1.0 1.0 1.0
ref_t                   = 310 310 310
;
pcoupl                  = C-rescale
pcoupltype              = semiisotropic
tau_p                   = 5.0
compressibility         = 4.5e-5  4.5e-5
ref_p                   = 1.0     1.0
;
constraints             = h-bonds
constraint_algorithm    = LINCS
continuation            = yes
;
nstcomm                 = 100
comm_mode               = linear
comm_grps               = SOLU_MEMB SOLV
